# vtk DataFile Version 2.0
MPM Particle Pressure Data
ASCII
DATASET UNSTRUCTURED_GRID
POINTS 600 float
0.005 0.005 0
0.015 0.005 0
0.025 0.005 0
0.035 0.005 0
0.045 0.005 0
0.055 0.005 0
0.005 0.015 0
0.015 0.015 0
0.025 0.015 0
0.035 0.015 0
0.045 0.015 0
0.055 0.015 0
0.005 0.025 0
0.015 0.025 0
0.025 0.025 0
0.035 0.025 0
0.045 0.025 0
0.055 0.025 0
0.005 0.035 0
0.015 0.035 0
0.025 0.035 0
0.035 0.035 0
0.045 0.035 0
0.055 0.035 0
0.005 0.045 0
0.015 0.045 0
0.025 0.045 0
0.035 0.045 0
0.045 0.045 0
0.055 0.045 0
0.005 0.055 0
0.015 0.055 0
0.025 0.055 0
0.035 0.055 0
0.045 0.055 0
0.055 0.055 0
0.005 0.065 0
0.015 0.065 0
0.025 0.065 0
0.035 0.065 0
0.045 0.065 0
0.055 0.065 0
0.005 0.075 0
0.015 0.075 0
0.025 0.075 0
0.035 0.075 0
0.045 0.075 0
0.055 0.075 0
0.005 0.085 0
0.015 0.085 0
0.025 0.085 0
0.035 0.085 0
0.045 0.085 0
0.055 0.085 0
0.005 0.095 0
0.015 0.095 0
0.025 0.095 0
0.035 0.095 0
0.045 0.095 0
0.055 0.095 0
0.005 0.105 0
0.015 0.105 0
0.025 0.105 0
0.035 0.105 0
0.045 0.105 0
0.055 0.105 0
0.005 0.115 0
0.015 0.115 0
0.025 0.115 0
0.035 0.115 0
0.045 0.115 0
0.055 0.115 0
0.005 0.125 0
0.015 0.125 0
0.025 0.125 0
0.035 0.125 0
0.045 0.125 0
0.055 0.125 0
0.005 0.135 0
0.015 0.135 0
0.025 0.135 0
0.035 0.135 0
0.045 0.135 0
0.055 0.135 0
0.005 0.145 0
0.015 0.145 0
0.025 0.145 0
0.035 0.145 0
0.045 0.145 0
0.055 0.145 0
0.005 0.155 0
0.015 0.155 0
0.025 0.155 0
0.035 0.155 0
0.045 0.155 0
0.055 0.155 0
0.005 0.165 0
0.015 0.165 0
0.025 0.165 0
0.035 0.165 0
0.045 0.165 0
0.055 0.165 0
0.005 0.175 0
0.015 0.175 0
0.025 0.175 0
0.035 0.175 0
0.045 0.175 0
0.055 0.175 0
0.005 0.185 0
0.015 0.185 0
0.025 0.185 0
0.035 0.185 0
0.045 0.185 0
0.055 0.185 0
0.005 0.195 0
0.015 0.195 0
0.025 0.195 0
0.035 0.195 0
0.045 0.195 0
0.055 0.195 0
0.005 0.205 0
0.015 0.205 0
0.025 0.205 0
0.035 0.205 0
0.045 0.205 0
0.055 0.205 0
0.005 0.215 0
0.015 0.215 0
0.025 0.215 0
0.035 0.215 0
0.045 0.215 0
0.055 0.215 0
0.005 0.225 0
0.015 0.225 0
0.025 0.225 0
0.035 0.225 0
0.045 0.225 0
0.055 0.225 0
0.005 0.235 0
0.015 0.235 0
0.025 0.235 0
0.035 0.235 0
0.045 0.235 0
0.055 0.235 0
0.005 0.245 0
0.015 0.245 0
0.025 0.245 0
0.035 0.245 0
0.045 0.245 0
0.055 0.245 0
0.005 0.255 0
0.015 0.255 0
0.025 0.255 0
0.035 0.255 0
0.045 0.255 0
0.055 0.255 0
0.005 0.265 0
0.015 0.265 0
0.025 0.265 0
0.035 0.265 0
0.045 0.265 0
0.055 0.265 0
0.005 0.275 0
0.015 0.275 0
0.025 0.275 0
0.035 0.275 0
0.045 0.275 0
0.055 0.275 0
0.005 0.285 0
0.015 0.285 0
0.025 0.285 0
0.035 0.285 0
0.045 0.285 0
0.055 0.285 0
0.005 0.295 0
0.015 0.295 0
0.025 0.295 0
0.035 0.295 0
0.045 0.295 0
0.055 0.295 0
0.005 0.305 0
0.015 0.305 0
0.025 0.305 0
0.035 0.305 0
0.045 0.305 0
0.055 0.305 0
0.005 0.315 0
0.015 0.315 0
0.025 0.315 0
0.035 0.315 0
0.045 0.315 0
0.055 0.315 0
0.005 0.325 0
0.015 0.325 0
0.025 0.325 0
0.035 0.325 0
0.045 0.325 0
0.055 0.325 0
0.005 0.335 0
0.015 0.335 0
0.025 0.335 0
0.035 0.335 0
0.045 0.335 0
0.055 0.335 0
0.005 0.345 0
0.015 0.345 0
0.025 0.345 0
0.035 0.345 0
0.045 0.345 0
0.055 0.345 0
0.005 0.355 0
0.015 0.355 0
0.025 0.355 0
0.035 0.355 0
0.045 0.355 0
0.055 0.355 0
0.005 0.365 0
0.015 0.365 0
0.025 0.365 0
0.035 0.365 0
0.045 0.365 0
0.055 0.365 0
0.005 0.375 0
0.015 0.375 0
0.025 0.375 0
0.035 0.375 0
0.045 0.375 0
0.055 0.375 0
0.005 0.385 0
0.015 0.385 0
0.025 0.385 0
0.035 0.385 0
0.045 0.385 0
0.055 0.385 0
0.005 0.395 0
0.015 0.395 0
0.025 0.395 0
0.035 0.395 0
0.045 0.395 0
0.055 0.395 0
0.005 0.405 0
0.015 0.405 0
0.025 0.405 0
0.035 0.405 0
0.045 0.405 0
0.055 0.405 0
0.005 0.415 0
0.015 0.415 0
0.025 0.415 0
0.035 0.415 0
0.045 0.415 0
0.055 0.415 0
0.005 0.425 0
0.015 0.425 0
0.025 0.425 0
0.035 0.425 0
0.045 0.425 0
0.055 0.425 0
0.005 0.435 0
0.015 0.435 0
0.025 0.435 0
0.035 0.435 0
0.045 0.435 0
0.055 0.435 0
0.005 0.445 0
0.015 0.445 0
0.025 0.445 0
0.035 0.445 0
0.045 0.445 0
0.055 0.445 0
0.005 0.455 0
0.015 0.455 0
0.025 0.455 0
0.035 0.455 0
0.045 0.455 0
0.055 0.455 0
0.005 0.465 0
0.015 0.465 0
0.025 0.465 0
0.035 0.465 0
0.045 0.465 0
0.055 0.465 0
0.005 0.475 0
0.015 0.475 0
0.025 0.475 0
0.035 0.475 0
0.045 0.475 0
0.055 0.475 0
0.005 0.485 0
0.015 0.485 0
0.025 0.485 0
0.035 0.485 0
0.045 0.485 0
0.055 0.485 0
0.005 0.494999 0
0.015 0.494999 0
0.025 0.494999 0
0.035 0.494999 0
0.045 0.494999 0
0.055 0.494999 0
0.005 0.504999 0
0.015 0.504999 0
0.025 0.504999 0
0.035 0.504999 0
0.045 0.504999 0
0.055 0.504999 0
0.005 0.514999 0
0.015 0.514999 0
0.025 0.514999 0
0.035 0.514999 0
0.045 0.514999 0
0.055 0.514999 0
0.005 0.524999 0
0.015 0.524999 0
0.025 0.524999 0
0.035 0.524999 0
0.045 0.524999 0
0.055 0.524999 0
0.005 0.534999 0
0.015 0.534999 0
0.025 0.534999 0
0.035 0.534999 0
0.045 0.534999 0
0.055 0.534999 0
0.005 0.544999 0
0.015 0.544999 0
0.025 0.544999 0
0.035 0.544999 0
0.045 0.544999 0
0.055 0.544999 0
0.005 0.554998 0
0.015 0.554998 0
0.025 0.554998 0
0.035 0.554998 0
0.045 0.554998 0
0.055 0.554998 0
0.005 0.564998 0
0.015 0.564998 0
0.025 0.564998 0
0.035 0.564998 0
0.045 0.564998 0
0.055 0.564998 0
0.005 0.574998 0
0.015 0.574998 0
0.025 0.574998 0
0.035 0.574998 0
0.045 0.574998 0
0.055 0.574998 0
0.005 0.584997 0
0.015 0.584997 0
0.025 0.584997 0
0.035 0.584997 0
0.045 0.584997 0
0.055 0.584997 0
0.005 0.594997 0
0.015 0.594997 0
0.025 0.594997 0
0.035 0.594997 0
0.045 0.594997 0
0.055 0.594997 0
0.005 0.604997 0
0.015 0.604997 0
0.025 0.604997 0
0.035 0.604997 0
0.045 0.604997 0
0.055 0.604997 0
0.005 0.614996 0
0.015 0.614996 0
0.025 0.614996 0
0.035 0.614996 0
0.045 0.614996 0
0.055 0.614996 0
0.005 0.624996 0
0.015 0.624996 0
0.025 0.624996 0
0.035 0.624996 0
0.045 0.624996 0
0.055 0.624996 0
0.005 0.634995 0
0.015 0.634995 0
0.025 0.634995 0
0.035 0.634995 0
0.045 0.634995 0
0.055 0.634995 0
0.005 0.644994 0
0.015 0.644994 0
0.025 0.644994 0
0.035 0.644994 0
0.045 0.644994 0
0.055 0.644994 0
0.005 0.654993 0
0.015 0.654993 0
0.025 0.654993 0
0.035 0.654993 0
0.045 0.654993 0
0.055 0.654993 0
0.005 0.664992 0
0.015 0.664992 0
0.025 0.664992 0
0.035 0.664992 0
0.045 0.664992 0
0.055 0.664992 0
0.005 0.674991 0
0.015 0.674991 0
0.025 0.674991 0
0.035 0.674991 0
0.045 0.674991 0
0.055 0.674991 0
0.005 0.68499 0
0.015 0.68499 0
0.025 0.68499 0
0.035 0.68499 0
0.045 0.68499 0
0.055 0.68499 0
0.005 0.694989 0
0.015 0.694989 0
0.025 0.694989 0
0.035 0.694989 0
0.045 0.694989 0
0.055 0.694989 0
0.005 0.704988 0
0.015 0.704988 0
0.025 0.704988 0
0.035 0.704988 0
0.045 0.704988 0
0.055 0.704988 0
0.005 0.714986 0
0.015 0.714986 0
0.025 0.714986 0
0.035 0.714986 0
0.045 0.714986 0
0.055 0.714986 0
0.005 0.724985 0
0.015 0.724985 0
0.025 0.724985 0
0.035 0.724985 0
0.045 0.724985 0
0.055 0.724985 0
0.005 0.734983 0
0.015 0.734983 0
0.025 0.734983 0
0.035 0.734983 0
0.045 0.734983 0
0.055 0.734983 0
0.005 0.744981 0
0.015 0.744981 0
0.025 0.744981 0
0.035 0.744981 0
0.045 0.744981 0
0.055 0.744981 0
0.005 0.754979 0
0.015 0.754979 0
0.025 0.754979 0
0.035 0.754979 0
0.045 0.754979 0
0.055 0.754979 0
0.005 0.764976 0
0.015 0.764976 0
0.025 0.764976 0
0.035 0.764976 0
0.045 0.764976 0
0.055 0.764976 0
0.005 0.774974 0
0.015 0.774974 0
0.025 0.774974 0
0.035 0.774974 0
0.045 0.774974 0
0.055 0.774974 0
0.005 0.784971 0
0.015 0.784971 0
0.025 0.784971 0
0.035 0.784971 0
0.045 0.784971 0
0.055 0.784971 0
0.005 0.794968 0
0.015 0.794968 0
0.025 0.794968 0
0.035 0.794968 0
0.045 0.794968 0
0.055 0.794968 0
0.005 0.804965 0
0.015 0.804965 0
0.025 0.804965 0
0.035 0.804965 0
0.045 0.804965 0
0.055 0.804965 0
0.005 0.814961 0
0.015 0.814961 0
0.025 0.814961 0
0.035 0.814961 0
0.045 0.814961 0
0.055 0.814961 0
0.005 0.824958 0
0.015 0.824958 0
0.025 0.824958 0
0.035 0.824958 0
0.045 0.824958 0
0.055 0.824958 0
0.005 0.834954 0
0.015 0.834954 0
0.025 0.834954 0
0.035 0.834954 0
0.045 0.834954 0
0.055 0.834954 0
0.005 0.844949 0
0.015 0.844949 0
0.025 0.844949 0
0.035 0.844949 0
0.045 0.844949 0
0.055 0.844949 0
0.005 0.854945 0
0.015 0.854945 0
0.025 0.854945 0
0.035 0.854945 0
0.045 0.854945 0
0.055 0.854945 0
0.005 0.86494 0
0.015 0.86494 0
0.025 0.86494 0
0.035 0.86494 0
0.045 0.86494 0
0.055 0.86494 0
0.005 0.874935 0
0.015 0.874935 0
0.025 0.874935 0
0.035 0.874935 0
0.045 0.874935 0
0.055 0.874935 0
0.005 0.884929 0
0.015 0.884929 0
0.025 0.884929 0
0.035 0.884929 0
0.045 0.884929 0
0.055 0.884929 0
0.005 0.894923 0
0.015 0.894923 0
0.025 0.894923 0
0.035 0.894923 0
0.045 0.894923 0
0.055 0.894923 0
0.005 0.904917 0
0.015 0.904917 0
0.025 0.904917 0
0.035 0.904917 0
0.045 0.904917 0
0.055 0.904917 0
0.005 0.91491 0
0.015 0.91491 0
0.025 0.91491 0
0.035 0.91491 0
0.045 0.91491 0
0.055 0.91491 0
0.005 0.924903 0
0.015 0.924903 0
0.025 0.924903 0
0.035 0.924903 0
0.045 0.924903 0
0.055 0.924903 0
0.005 0.934896 0
0.015 0.934896 0
0.025 0.934896 0
0.035 0.934896 0
0.045 0.934896 0
0.055 0.934896 0
0.005 0.944888 0
0.015 0.944888 0
0.025 0.944888 0
0.035 0.944888 0
0.045 0.944888 0
0.055 0.944888 0
0.005 0.95488 0
0.015 0.95488 0
0.025 0.95488 0
0.035 0.95488 0
0.045 0.95488 0
0.055 0.95488 0
0.005 0.964872 0
0.015 0.964872 0
0.025 0.964872 0
0.035 0.964872 0
0.045 0.964872 0
0.055 0.964872 0
0.005 0.974863 0
0.015 0.974863 0
0.025 0.974863 0
0.035 0.974863 0
0.045 0.974863 0
0.055 0.974863 0
0.005 0.984855 0
0.015 0.984855 0
0.025 0.984855 0
0.035 0.984855 0
0.045 0.984855 0
0.055 0.984855 0
0.005 0.994848 0
0.015 0.994848 0
0.025 0.994848 0
0.035 0.994848 0
0.045 0.994848 0
0.055 0.994848 0
CELLS 600 1200
1 0
1 1
1 2
1 3
1 4
1 5
1 6
1 7
1 8
1 9
1 10
1 11
1 12
1 13
1 14
1 15
1 16
1 17
1 18
1 19
1 20
1 21
1 22
1 23
1 24
1 25
1 26
1 27
1 28
1 29
1 30
1 31
1 32
1 33
1 34
1 35
1 36
1 37
1 38
1 39
1 40
1 41
1 42
1 43
1 44
1 45
1 46
1 47
1 48
1 49
1 50
1 51
1 52
1 53
1 54
1 55
1 56
1 57
1 58
1 59
1 60
1 61
1 62
1 63
1 64
1 65
1 66
1 67
1 68
1 69
1 70
1 71
1 72
1 73
1 74
1 75
1 76
1 77
1 78
1 79
1 80
1 81
1 82
1 83
1 84
1 85
1 86
1 87
1 88
1 89
1 90
1 91
1 92
1 93
1 94
1 95
1 96
1 97
1 98
1 99
1 100
1 101
1 102
1 103
1 104
1 105
1 106
1 107
1 108
1 109
1 110
1 111
1 112
1 113
1 114
1 115
1 116
1 117
1 118
1 119
1 120
1 121
1 122
1 123
1 124
1 125
1 126
1 127
1 128
1 129
1 130
1 131
1 132
1 133
1 134
1 135
1 136
1 137
1 138
1 139
1 140
1 141
1 142
1 143
1 144
1 145
1 146
1 147
1 148
1 149
1 150
1 151
1 152
1 153
1 154
1 155
1 156
1 157
1 158
1 159
1 160
1 161
1 162
1 163
1 164
1 165
1 166
1 167
1 168
1 169
1 170
1 171
1 172
1 173
1 174
1 175
1 176
1 177
1 178
1 179
1 180
1 181
1 182
1 183
1 184
1 185
1 186
1 187
1 188
1 189
1 190
1 191
1 192
1 193
1 194
1 195
1 196
1 197
1 198
1 199
1 200
1 201
1 202
1 203
1 204
1 205
1 206
1 207
1 208
1 209
1 210
1 211
1 212
1 213
1 214
1 215
1 216
1 217
1 218
1 219
1 220
1 221
1 222
1 223
1 224
1 225
1 226
1 227
1 228
1 229
1 230
1 231
1 232
1 233
1 234
1 235
1 236
1 237
1 238
1 239
1 240
1 241
1 242
1 243
1 244
1 245
1 246
1 247
1 248
1 249
1 250
1 251
1 252
1 253
1 254
1 255
1 256
1 257
1 258
1 259
1 260
1 261
1 262
1 263
1 264
1 265
1 266
1 267
1 268
1 269
1 270
1 271
1 272
1 273
1 274
1 275
1 276
1 277
1 278
1 279
1 280
1 281
1 282
1 283
1 284
1 285
1 286
1 287
1 288
1 289
1 290
1 291
1 292
1 293
1 294
1 295
1 296
1 297
1 298
1 299
1 300
1 301
1 302
1 303
1 304
1 305
1 306
1 307
1 308
1 309
1 310
1 311
1 312
1 313
1 314
1 315
1 316
1 317
1 318
1 319
1 320
1 321
1 322
1 323
1 324
1 325
1 326
1 327
1 328
1 329
1 330
1 331
1 332
1 333
1 334
1 335
1 336
1 337
1 338
1 339
1 340
1 341
1 342
1 343
1 344
1 345
1 346
1 347
1 348
1 349
1 350
1 351
1 352
1 353
1 354
1 355
1 356
1 357
1 358
1 359
1 360
1 361
1 362
1 363
1 364
1 365
1 366
1 367
1 368
1 369
1 370
1 371
1 372
1 373
1 374
1 375
1 376
1 377
1 378
1 379
1 380
1 381
1 382
1 383
1 384
1 385
1 386
1 387
1 388
1 389
1 390
1 391
1 392
1 393
1 394
1 395
1 396
1 397
1 398
1 399
1 400
1 401
1 402
1 403
1 404
1 405
1 406
1 407
1 408
1 409
1 410
1 411
1 412
1 413
1 414
1 415
1 416
1 417
1 418
1 419
1 420
1 421
1 422
1 423
1 424
1 425
1 426
1 427
1 428
1 429
1 430
1 431
1 432
1 433
1 434
1 435
1 436
1 437
1 438
1 439
1 440
1 441
1 442
1 443
1 444
1 445
1 446
1 447
1 448
1 449
1 450
1 451
1 452
1 453
1 454
1 455
1 456
1 457
1 458
1 459
1 460
1 461
1 462
1 463
1 464
1 465
1 466
1 467
1 468
1 469
1 470
1 471
1 472
1 473
1 474
1 475
1 476
1 477
1 478
1 479
1 480
1 481
1 482
1 483
1 484
1 485
1 486
1 487
1 488
1 489
1 490
1 491
1 492
1 493
1 494
1 495
1 496
1 497
1 498
1 499
1 500
1 501
1 502
1 503
1 504
1 505
1 506
1 507
1 508
1 509
1 510
1 511
1 512
1 513
1 514
1 515
1 516
1 517
1 518
1 519
1 520
1 521
1 522
1 523
1 524
1 525
1 526
1 527
1 528
1 529
1 530
1 531
1 532
1 533
1 534
1 535
1 536
1 537
1 538
1 539
1 540
1 541
1 542
1 543
1 544
1 545
1 546
1 547
1 548
1 549
1 550
1 551
1 552
1 553
1 554
1 555
1 556
1 557
1 558
1 559
1 560
1 561
1 562
1 563
1 564
1 565
1 566
1 567
1 568
1 569
1 570
1 571
1 572
1 573
1 574
1 575
1 576
1 577
1 578
1 579
1 580
1 581
1 582
1 583
1 584
1 585
1 586
1 587
1 588
1 589
1 590
1 591
1 592
1 593
1 594
1 595
1 596
1 597
1 598
1 599
CELL_TYPES 600
1
1
1
1
1
1
1
1
1
1
1
1
1
1
1
1
1
1
1
1
1
1
1
1
1
1
1
1
1
1
1
1
1
1
1
1
1
1
1
1
1
1
1
1
1
1
1
1
1
1
1
1
1
1
1
1
1
1
1
1
1
1
1
1
1
1
1
1
1
1
1
1
1
1
1
1
1
1
1
1
1
1
1
1
1
1
1
1
1
1
1
1
1
1
1
1
1
1
1
1
1
1
1
1
1
1
1
1
1
1
1
1
1
1
1
1
1
1
1
1
1
1
1
1
1
1
1
1
1
1
1
1
1
1
1
1
1
1
1
1
1
1
1
1
1
1
1
1
1
1
1
1
1
1
1
1
1
1
1
1
1
1
1
1
1
1
1
1
1
1
1
1
1
1
1
1
1
1
1
1
1
1
1
1
1
1
1
1
1
1
1
1
1
1
1
1
1
1
1
1
1
1
1
1
1
1
1
1
1
1
1
1
1
1
1
1
1
1
1
1
1
1
1
1
1
1
1
1
1
1
1
1
1
1
1
1
1
1
1
1
1
1
1
1
1
1
1
1
1
1
1
1
1
1
1
1
1
1
1
1
1
1
1
1
1
1
1
1
1
1
1
1
1
1
1
1
1
1
1
1
1
1
1
1
1
1
1
1
1
1
1
1
1
1
1
1
1
1
1
1
1
1
1
1
1
1
1
1
1
1
1
1
1
1
1
1
1
1
1
1
1
1
1
1
1
1
1
1
1
1
1
1
1
1
1
1
1
1
1
1
1
1
1
1
1
1
1
1
1
1
1
1
1
1
1
1
1
1
1
1
1
1
1
1
1
1
1
1
1
1
1
1
1
1
1
1
1
1
1
1
1
1
1
1
1
1
1
1
1
1
1
1
1
1
1
1
1
1
1
1
1
1
1
1
1
1
1
1
1
1
1
1
1
1
1
1
1
1
1
1
1
1
1
1
1
1
1
1
1
1
1
1
1
1
1
1
1
1
1
1
1
1
1
1
1
1
1
1
1
1
1
1
1
1
1
1
1
1
1
1
1
1
1
1
1
1
1
1
1
1
1
1
1
1
1
1
1
1
1
1
1
1
1
1
1
1
1
1
1
1
1
1
1
1
1
1
1
1
1
1
1
1
1
1
1
1
1
1
1
1
1
1
1
1
1
1
1
1
1
1
1
1
1
1
1
1
1
1
1
1
1
1
1
1
1
1
1
1
1
1
1
1
1
1
1
1
1
1
1
1
1
1
1
1
1
1
1
1
1
1
1
1
1
1
1
1
1
1
1
1
1
1
1
1
1
1
1
1
1
1
1
1
1
1
1
1
1
1
1
1
1
1
1
1
1
1
1
1
1
1
POINT_DATA 600
SCALARS Pressure float
LOOKUP_TABLE default
9635.37
9635.37
9635.37
9635.37
9635.37
9635.37
9635.37
9635.37
9635.37
9635.37
9635.37
9635.37
9637.59
9637.59
9637.59
9637.59
9637.59
9637.59
9637.59
9637.59
9637.59
9637.59
9637.59
9637.59
9641.75
9641.75
9641.75
9641.75
9641.75
9641.75
9641.75
9641.75
9641.75
9641.75
9641.75
9641.75
9647.29
9647.29
9647.29
9647.29
9647.29
9647.29
9647.29
9647.29
9647.29
9647.29
9647.29
9647.29
9653.57
9653.57
9653.57
9653.57
9653.57
9653.57
9653.57
9653.57
9653.57
9653.57
9653.57
9653.57
9659.92
9659.92
9659.92
9659.92
9659.92
9659.92
9659.92
9659.92
9659.92
9659.92
9659.92
9659.92
9665.84
9665.84
9665.84
9665.84
9665.84
9665.84
9665.84
9665.84
9665.84
9665.84
9665.84
9665.84
9671.02
9671.02
9671.02
9671.02
9671.02
9671.02
9671.02
9671.02
9671.02
9671.02
9671.02
9671.02
9675.39
9675.39
9675.39
9675.39
9675.39
9675.39
9675.39
9675.39
9675.39
9675.39
9675.39
9675.39
9679.12
9679.12
9679.12
9679.12
9679.12
9679.12
9679.12
9679.12
9679.12
9679.12
9679.12
9679.12
9682.48
9682.48
9682.48
9682.48
9682.48
9682.48
9682.48
9682.48
9682.48
9682.48
9682.48
9682.48
9685.84
9685.84
9685.84
9685.84
9685.84
9685.84
9685.84
9685.84
9685.84
9685.84
9685.84
9685.84
9689.51
9689.51
9689.51
9689.51
9689.51
9689.51
9689.51
9689.51
9689.51
9689.51
9689.51
9689.51
9693.71
9693.71
9693.71
9693.71
9693.71
9693.71
9693.71
9693.71
9693.71
9693.71
9693.71
9693.71
9698.5
9698.5
9698.5
9698.5
9698.5
9698.5
9698.5
9698.5
9698.5
9698.5
9698.5
9698.5
9703.81
9703.81
9703.81
9703.81
9703.81
9703.81
9703.81
9703.81
9703.81
9703.81
9703.81
9703.81
9709.42
9709.42
9709.42
9709.42
9709.42
9709.42
9709.42
9709.42
9709.42
9709.42
9709.42
9709.42
9715.01
9715.01
9715.01
9715.01
9715.01
9715.01
9715.01
9715.01
9715.01
9715.01
9715.01
9715.01
9720.14
9720.14
9720.14
9720.14
9720.14
9720.14
9720.14
9720.14
9720.14
9720.14
9720.14
9720.14
9724.3
9724.3
9724.3
9724.3
9724.3
9724.3
9724.3
9724.3
9724.3
9724.3
9724.3
9724.3
9726.81
9726.81
9726.81
9726.81
9726.81
9726.81
9726.81
9726.81
9726.81
9726.81
9726.81
9726.81
9726.89
9726.89
9726.89
9726.89
9726.89
9726.89
9726.89
9726.89
9726.89
9726.89
9726.89
9726.89
9723.51
9723.51
9723.51
9723.51
9723.51
9723.51
9723.51
9723.51
9723.51
9723.51
9723.51
9723.51
9715.37
9715.37
9715.37
9715.37
9715.37
9715.37
9715.37
9715.37
9715.37
9715.37
9715.37
9715.37
9701.04
9701.04
9701.04
9701.04
9701.04
9701.04
9701.04
9701.04
9701.04
9701.04
9701.04
9701.04
9678.24
9678.24
9678.24
9678.24
9678.24
9678.24
9678.24
9678.24
9678.24
9678.24
9678.24
9678.24
9645.39
9645.39
9645.39
9645.39
9645.39
9645.39
9645.39
9645.39
9645.39
9645.39
9645.39
9645.39
9599.13
9599.13
9599.13
9599.13
9599.13
9599.13
9599.13
9599.13
9599.13
9599.13
9599.13
9599.13
9537.09
9537.09
9537.09
9537.09
9537.09
9537.09
9537.09
9537.09
9537.09
9537.09
9537.09
9537.09
9457.14
9457.14
9457.14
9457.14
9457.14
9457.14
9457.14
9457.14
9457.14
9457.14
9457.14
9457.14
9352.39
9352.39
9352.39
9352.39
9352.39
9352.39
9352.39
9352.39
9352.39
9352.39
9352.39
9352.39
9227.16
9227.16
9227.16
9227.16
9227.16
9227.16
9227.16
9227.16
9227.16
9227.16
9227.16
9227.16
9066.9
9066.9
9066.9
9066.9
9066.9
9066.9
9066.9
9066.9
9066.9
9066.9
9066.9
9066.9
8880.01
8880.01
8880.01
8880.01
8880.01
8880.01
8880.01
8880.01
8880.01
8880.01
8880.01
8880.01
8658.3
8658.3
8658.3
8658.3
8658.3
8658.3
8658.3
8658.3
8658.3
8658.3
8658.3
8658.3
8387.38
8387.38
8387.38
8387.38
8387.38
8387.38
8387.38
8387.38
8387.38
8387.38
8387.38
8387.38
8102.24
8102.24
8102.24
8102.24
8102.24
8102.24
8102.24
8102.24
8102.24
8102.24
8102.24
8102.24
7733.11
7733.11
7733.11
7733.11
7733.11
7733.11
7733.11
7733.11
7733.11
7733.11
7733.11
7733.11
7368.41
7368.41
7368.41
7368.41
7368.41
7368.41
7368.41
7368.41
7368.41
7368.41
7368.41
7368.41
6914.99
6914.99
6914.99
6914.99
6914.99
6914.99
6914.99
6914.99
6914.99
6914.99
6914.99
6914.99
6435.78
6435.78
6435.78
6435.78
6435.78
6435.78
6435.78
6435.78
6435.78
6435.78
6435.78
6435.78
5926.91
5926.91
5926.91
5926.91
5926.91
5926.91
5926.91
5926.91
5926.91
5926.91
5926.91
5926.91
5315.5
5315.5
5315.5
5315.5
5315.5
5315.5
5315.5
5315.5
5315.5
5315.5
5315.5
5315.5
4756.14
4756.14
4756.14
4756.14
4756.14
4756.14
4756.14
4756.14
4756.14
4756.14
4756.14
4756.14
4038.99
4038.99
4038.99
4038.99
4038.99
4038.99
4038.99
4038.99
4038.99
4038.99
4038.99
4038.99
3414.16
3414.16
3414.16
3414.16
3414.16
3414.16
3414.16
3414.16
3414.16
3414.16
3414.16
3414.16
2632.32
2632.32
2632.32
2632.32
2632.32
2632.32
2632.32
2632.32
2632.32
2632.32
2632.32
2632.32
1947.69
1947.69
1947.69
1947.69
1947.69
1947.69
1947.69
1947.69
1947.69
1947.69
1947.69
1947.69
1125.98
1125.98
1125.98
1125.98
1125.98
1125.98
1125.98
1125.98
1125.98
1125.98
1125.98
1125.98
413.019
413.019
413.019
413.019
413.019
413.019
413.019
413.019
413.019
413.019
413.019
413.019
