# vtk DataFile Version 2.0
test grain
ASCII
DATASET UNSTRUCTURED_GRID
POINTS 8 float
0.2498 0.2498 0.24975
0.7502 0.2498 0.24975
0.2498 0.7502 0.24975
0.7502 0.7502 0.24975
0.2498 0.2498 0.74925
0.7502 0.2498 0.74925
0.2498 0.7502 0.74925
0.7502 0.7502 0.74925
CELLS 8 16
1 0
1 1
1 2
1 3
1 4
1 5
1 6
1 7
CELL_TYPES 8
1 
1 
1 
1 
1 
1 
1 
1 
POINT_DATA 8
VECTORS Strain float
0.000199892 0.000199892 -0.001 2.13452e-22 2.87097e-21 2.1272e-21
0.000199892 0.000199892 -0.001 5.54163e-22 2.70834e-21 -2.99348e-21
0.000199892 0.000199892 -0.001 -4.95616e-22 -3.00107e-21 2.42861e-21
0.000199892 0.000199892 -0.001 -1.53279e-22 -2.95554e-21 -3.14202e-21
0.000199892 0.000199892 -0.001 3.66325e-22 2.6975e-21 2.1619e-21
0.000199892 0.000199892 -0.001 4.21348e-22 1.50921e-21 -2.93168e-21
0.000199892 0.000199892 -0.001 -3.59142e-22 -3.9118e-21 2.63678e-21
0.000199892 0.000199892 -0.001 -5.2001e-22 -2.48065e-21 -3.02709e-21
