# vtk DataFile Version 2.0
test grain
ASCII
DATASET UNSTRUCTURED_GRID
POINTS 8 float
0.2498 0.2498 0.24975
0.7502 0.2498 0.24975
0.2498 0.7502 0.24975
0.7502 0.7502 0.24975
0.2498 0.2498 0.74925
0.7502 0.2498 0.74925
0.2498 0.7502 0.74925
0.7502 0.7502 0.74925
CELLS 8 16
1 0
1 1
1 2
1 3
1 4
1 5
1 6
1 7
CELL_TYPES 8
1 
1 
1 
1 
1 
1 
1 
1 
POINT_DATA 8
VECTORS Velocity float
-0.0019984 -0.0019984 -0.0024975
0.0019984 -0.0019984 -0.0024975
-0.0019984 0.0019984 -0.0024975
0.0019984 0.0019984 -0.0024975
-0.0019984 -0.0019984 -0.0074925
0.0019984 -0.0019984 -0.0074925
-0.0019984 0.0019984 -0.0074925
0.0019984 0.0019984 -0.0074925
